# vtk DataFile Version 2.0
untitled, Created by Gmsh
ASCII
DATASET UNSTRUCTURED_GRID
POINTS 152 double
0 0 0
0 1 0
1 1 0
1 0 0
0 0.9736842105262195 0
0 0.9473684210524125 0
0 0.921052631578642 0
0 0.8947368421048248 0
0 0.8684210526312124 0
0 0.8421052631576025 0
0 0.815789473684093 0
0 0.7894736842105994 0
0 0.7631578947370594 0
0 0.7368421052635962 0
0 0.7105263157900948 0
0 0.6842105263165927 0
0 0.6578947368430739 0
0 0.6315789473695894 0
0 0.6052631578960905 0
0 0.5789473684225861 0
0 0.552631578949108 0
0 0.5263157894755828 0
0 0.5000000000020269 0
0 0.4736842105282874 0
0 0.4473684210544936 0
0 0.4210526315806998 0
0 0.3947368421069061 0
0 0.3684210526331123 0
0 0.3421052631593186 0
0 0.3157894736855248 0
0 0.2894736842117311 0
0 0.2631578947379374 0
0 0.2368421052641436 0
0 0.21052631579035 0
0 0.1842105263165562 0
0 0.1578947368427625 0
0 0.1315789473689687 0
0 0.1052631578951749 0
0 0.07894736842138117 0
0 0.05263157894758741 0
0 0.02631578947379376 0
0.9736842105262195 1 0
0.9473684210524125 1 0
0.921052631578642 1 0
0.8947368421048248 1 0
0.8684210526312124 1 0
0.8421052631576025 1 0
0.815789473684093 1 0
0.7894736842105994 1 0
0.7631578947370594 1 0
0.7368421052635962 1 0
0.7105263157900948 1 0
0.6842105263165927 1 0
0.6578947368430739 1 0
0.6315789473695894 1 0
0.6052631578960905 1 0
0.5789473684225861 1 0
0.552631578949108 1 0
0.5263157894755828 1 0
0.5000000000020269 1 0
0.4736842105282874 1 0
0.4473684210544936 1 0
0.4210526315806998 1 0
0.3947368421069061 1 0
0.3684210526331123 1 0
0.3421052631593186 1 0
0.3157894736855248 1 0
0.2894736842117311 1 0
0.2631578947379374 1 0
0.2368421052641436 1 0
0.21052631579035 1 0
0.1842105263165562 1 0
0.1578947368427625 1 0
0.1315789473689687 1 0
0.1052631578951749 1 0
0.07894736842138117 1 0
0.05263157894758741 1 0
0.02631578947379376 1 0
1 0.02631578947363449 0
1 0.05263157894726195 0
1 0.07894736842089922 0
1 0.1052631578945429 0
1 0.1315789473681783 0
1 0.1578947368417851 0
1 0.1842105263153925 0
1 0.2105263157889999 0
1 0.2368421052626072 0
1 0.2631578947362146 0
1 0.289473684209822 0
1 0.3157894736834294 0
1 0.3421052631570368 0
1 0.3684210526306442 0
1 0.3947368421042516 0
1 0.421052631577859 0
1 0.4473684210514664 0
1 0.4736842105250738 0
1 0.4999999999986813 0
1 0.5263157894724348 0
1 0.5526315789461884 0
1 0.5789473684199421 0
1 0.6052631578936958 0
1 0.6315789473674494 0
1 0.6578947368412029 0
1 0.6842105263149566 0
1 0.7105263157887102 0
1 0.7368421052624637 0
1 0.7631578947362174 0
1 0.789473684209971 0
1 0.8157894736837246 0
1 0.8421052631574782 0
1 0.8684210526312319 0
1 0.8947368421049855 0
1 0.9210526315787391 0
1 0.9473684210524927 0
1 0.9736842105262464 0
0.9736842105262195 0 0
0.9473684210524125 0 0
0.921052631578642 0 0
0.8947368421048248 0 0
0.8684210526312124 0 0
0.8421052631576025 0 0
0.815789473684093 0 0
0.7894736842105994 0 0
0.7631578947370594 0 0
0.7368421052635962 0 0
0.7105263157900948 0 0
0.6842105263165927 0 0
0.6578947368430739 0 0
0.6315789473695894 0 0
0.6052631578960905 0 0
0.5789473684225861 0 0
0.552631578949108 0 0
0.5263157894755828 0 0
0.5000000000020269 0 0
0.4736842105282874 0 0
0.4473684210544936 0 0
0.4210526315806998 0 0
0.3947368421069061 0 0
0.3684210526331123 0 0
0.3421052631593186 0 0
0.3157894736855248 0 0
0.2894736842117311 0 0
0.2631578947379374 0 0
0.2368421052641436 0 0
0.21052631579035 0 0
0.1842105263165562 0 0
0.1578947368427625 0 0
0.1315789473689687 0 0
0.1052631578951749 0 0
0.07894736842138117 0 0
0.05263157894758741 0 0
0.02631578947379376 0 0

CELLS 152 456
2 1 4
2 4 5
2 5 6
2 6 7
2 7 8
2 8 9
2 9 10
2 10 11
2 11 12
2 12 13
2 13 14
2 14 15
2 15 16
2 16 17
2 17 18
2 18 19
2 19 20
2 20 21
2 21 22
2 22 23
2 23 24
2 24 25
2 25 26
2 26 27
2 27 28
2 28 29
2 29 30
2 30 31
2 31 32
2 32 33
2 33 34
2 34 35
2 35 36
2 36 37
2 37 38
2 38 39
2 39 40
2 40 0
2 2 41
2 41 42
2 42 43
2 43 44
2 44 45
2 45 46
2 46 47
2 47 48
2 48 49
2 49 50
2 50 51
2 51 52
2 52 53
2 53 54
2 54 55
2 55 56
2 56 57
2 57 58
2 58 59
2 59 60
2 60 61
2 61 62
2 62 63
2 63 64
2 64 65
2 65 66
2 66 67
2 67 68
2 68 69
2 69 70
2 70 71
2 71 72
2 72 73
2 73 74
2 74 75
2 75 76
2 76 77
2 77 1
2 3 78
2 78 79
2 79 80
2 80 81
2 81 82
2 82 83
2 83 84
2 84 85
2 85 86
2 86 87
2 87 88
2 88 89
2 89 90
2 90 91
2 91 92
2 92 93
2 93 94
2 94 95
2 95 96
2 96 97
2 97 98
2 98 99
2 99 100
2 100 101
2 101 102
2 102 103
2 103 104
2 104 105
2 105 106
2 106 107
2 107 108
2 108 109
2 109 110
2 110 111
2 111 112
2 112 113
2 113 114
2 114 2
2 3 115
2 115 116
2 116 117
2 117 118
2 118 119
2 119 120
2 120 121
2 121 122
2 122 123
2 123 124
2 124 125
2 125 126
2 126 127
2 127 128
2 128 129
2 129 130
2 130 131
2 131 132
2 132 133
2 133 134
2 134 135
2 135 136
2 136 137
2 137 138
2 138 139
2 139 140
2 140 141
2 141 142
2 142 143
2 143 144
2 144 145
2 145 146
2 146 147
2 147 148
2 148 149
2 149 150
2 150 151
2 151 0

CELL_TYPES 152
3
3
3
3
3
3
3
3
3
3
3
3
3
3
3
3
3
3
3
3
3
3
3
3
3
3
3
3
3
3
3
3
3
3
3
3
3
3
3
3
3
3
3
3
3
3
3
3
3
3
3
3
3
3
3
3
3
3
3
3
3
3
3
3
3
3
3
3
3
3
3
3
3
3
3
3
3
3
3
3
3
3
3
3
3
3
3
3
3
3
3
3
3
3
3
3
3
3
3
3
3
3
3
3
3
3
3
3
3
3
3
3
3
3
3
3
3
3
3
3
3
3
3
3
3
3
3
3
3
3
3
3
3
3
3
3
3
3
3
3
3
3
3
3
3
3
3
3
3
3
3
3

CELL_DATA 152
SCALARS CellEntityIds int 1
LOOKUP_TABLE default
5
5
5
5
5
5
5
5
5
5
5
5
5
5
5
5
5
5
5
5
5
5
5
5
5
5
5
5
5
5
5
5
5
5
5
5
5
5
7
7
7
7
7
7
7
7
7
7
7
7
7
7
7
7
7
7
7
7
7
7
7
7
7
7
7
7
7
7
7
7
7
7
7
7
7
7
6
6
6
6
6
6
6
6
6
6
6
6
6
6
6
6
6
6
6
6
6
6
6
6
6
6
6
6
6
6
6
6
6
6
6
6
6
6
8
8
8
8
8
8
8
8
8
8
8
8
8
8
8
8
8
8
8
8
8
8
8
8
8
8
8
8
8
8
8
8
8
8
8
8
8
8
